ITEM: TIMESTEP
0
ITEM: NUMBER OF ATOMS
137
ITEM: BOX BOUNDS pp pp pp
-2.6172504656604801e+01 2.6172504656604801e+01
-2.6172504656604801e+01 2.6172504656604801e+01
-2.6172504656604801e+01 2.6172504656604801e+01
ITEM: ATOMS id x y vx vy
37 -6 -18 0 0
50 -3 -18 0 0
63 0 -18 0 0
76 3 -18 0 0
89 6 -18 0 0
15 -12 -15 0 0
26 -9 -15 0 0
38 -6 -15 0 0
51 -3 -15 0 0
64 0 -15 0 0
77 3 -15 0 0
90 6 -15 0 0
102 9 -15 0 0
113 12 -15 0 0
6 -15 -12 0 0
16 -12 -12 0 0
27 -9 -12 0 0
39 -6 -12 0 0
52 -3 -12 0 0
65 0 -12 0 0
78 3 -12 0 0
91 6 -12 0 0
103 9 -12 0 0
114 12 -12 0 0
124 15 -12 0 0
7 -15 -9 0 0
17 -12 -9 0 0
28 -9 -9 0 0
40 -6 -9 0 0
53 -3 -9 0 0
66 0 -9 0 0
79 3 -9 0 0
92 6 -9 0 0
104 9 -9 0 0
115 12 -9 0 0
125 15 -9 0 0
1 -18 -6 0 0
8 -15 -6 0 0
18 -12 -6 0 0
29 -9 -6 0 0
41 -6 -6 0 0
54 -3 -6 0 0
67 0 -6 0 0
80 3 -6 0 0
93 6 -6 0 0
105 9 -6 0 0
116 12 -6 0 0
126 15 -6 0 0
133 18 -6 0 0
2 -18 -3 0 0
9 -15 -3 0 0
19 -12 -3 0 0
30 -9 -3 0 0
42 -6 -3 0 0
55 -3 -3 0 0
68 0 -3 0 0
81 3 -3 0 0
94 6 -3 0 0
106 9 -3 0 0
117 12 -3 0 0
127 15 -3 0 0
134 18 -3 0 0
3 -18 0 0 0
10 -15 0 0 0
20 -12 0 0 0
31 -9 0 0 0
43 -6 0 0 0
56 -3 0 0 0
69 0 0 0 0
82 3 0 0 0
95 6 0 0 0
107 9 0 0 0
118 12 0 0 0
128 15 0 0 0
135 18 0 0 0
4 -18 3 0 0
11 -15 3 0 0
21 -12 3 0 0
32 -9 3 0 0
44 -6 3 0 0
57 -3 3 0 0
70 0 3 0 0
83 3 3 0 0
96 6 3 0 0
108 9 3 0 0
119 12 3 0 0
129 15 3 0 0
136 18 3 0 0
5 -18 6 0 0
12 -15 6 0 0
22 -12 6 0 0
33 -9 6 0 0
45 -6 6 0 0
58 -3 6 0 0
71 0 6 0 0
84 3 6 0 0
97 6 6 0 0
109 9 6 0 0
120 12 6 0 0
130 15 6 0 0
137 18 6 0 0
13 -15 9 0 0
23 -12 9 0 0
34 -9 9 0 0
46 -6 9 0 0
59 -3 9 0 0
72 0 9 0 0
85 3 9 0 0
98 6 9 0 0
110 9 9 0 0
121 12 9 0 0
131 15 9 0 0
14 -15 12 0 0
24 -12 12 0 0
35 -9 12 0 0
47 -6 12 0 0
60 -3 12 0 0
73 0 12 0 0
86 3 12 0 0
99 6 12 0 0
111 9 12 0 0
122 12 12 0 0
132 15 12 0 0
25 -12 15 0 0
36 -9 15 0 0
48 -6 15 0 0
61 -3 15 0 0
74 0 15 0 0
87 3 15 0 0
100 6 15 0 0
112 9 15 0 0
123 12 15 0 0
49 -6 18 0 0
62 -3 18 0 0
75 0 18 0 0
88 3 18 0 0
101 6 18 0 0
ITEM: TIMESTEP
500000
ITEM: NUMBER OF ATOMS
137
ITEM: BOX BOUNDS pp pp pp
-2.6172504656604801e+01 2.6172504656604801e+01
-2.6172504656604801e+01 2.6172504656604801e+01
-2.6172504656604801e+01 2.6172504656604801e+01
ITEM: ATOMS id x y vx vy
90 -0.981415 -9.11799 -0.577961 0.0544816
77 0.121197 -9.43825 -0.371453 0.38375
78 1.22473 -9.65567 0.0276711 -0.290816
37 -1.504 -8.07549 -0.0283993 0.459346
38 -1.78235 -6.97192 0.0128491 -0.587231
54 -0.686976 -7.2223 0.145582 -0.076257
63 0.837051 -8.41684 0.532686 -0.512895
51 -0.252232 -8.29488 -0.0371679 0.0936723
50 0.414431 -7.33547 -0.877056 -0.434979
80 1.61532 -7.61195 0.0308147 -0.0911404
65 -1.54225 -5.01432 -0.420636 -0.382042
53 -1.20513 -6.11321 0.764792 0.38706
64 -0.0738034 -6.33735 0.074009 0.731529
79 -0.474423 -5.37708 0.190638 -0.950857
76 0.600184 -5.44856 -0.0139993 -0.370773
52 1.15702 -6.43659 -0.10017 0.617496
6 -3.2376 -3.49398 -0.00918388 0.198675
16 -2.10998 -3.92677 -0.411847 0.617428
17 -1.11295 -3.08548 0.938142 -0.662061
15 -0.819279 -4.19056 0.225576 0.135568
39 0.221998 -4.45711 0.178395 -0.478226
27 -0.0147122 -3.34718 -0.28701 0.647739
89 1.42757 -4.61907 -0.290731 0.408245
91 1.01929 -3.64574 0.418965 -0.566706
113 2.21292 -3.91064 0.177869 -0.282018
103 2.95508 -3.17864 0.215044 0.135727
114 3.97057 -3.48105 -0.19309 -0.350131
42 -4.95828 -1.1716 -0.205622 -0.112211
18 -3.35386 -2.38623 -0.0739059 -0.510673
43 -3.7058 -1.26682 -0.193894 -0.251011
7 -2.17196 -2.68802 -0.446525 0.0727163
81 -2.57814 -1.61501 1.07452 -0.106064
29 -1.38822 -2.04588 0.303288 -0.120833
26 0.73136 -2.56503 -0.299264 0.108814
57 -0.69341 -1.17418 -0.232132 0.648351
28 -0.370598 -2.33233 -0.487695 -0.237276
41 0.453992 -1.45818 -0.233824 -0.229485
102 1.83017 -2.88719 -0.135967 0.182579
40 1.55859 -1.78478 0.187483 -0.118792
104 2.5953 -2.04849 0.185744 0.118269
92 2.25759 -0.932239 0.504958 -0.402521
125 3.36448 -1.23902 -0.577813 0.27171
115 3.68056 -2.30906 -0.196644 -0.0374186
116 4.41347 -1.56975 0.491508 0.679914
124 4.70295 -2.67234 -0.351191 0.272955
108 5.50311 -1.85038 -0.111813 -0.340089
133 6.39278 -1.12268 0.635595 0.00302474
94 6.60813 -2.21633 0.151605 -0.225129
130 7.42042 -1.40862 0.0606951 0.270033
30 -7.05999 -0.542321 -0.419646 -0.143777
5 -8.25375 0.010675 -0.0939002 -0.393239
8 -7.37163 0.677117 0.150332 -0.360325
9 -5.9541 -0.638794 -0.0342275 0.229496
19 -6.27887 0.417927 0.346376 -0.0504319
2 -5.16702 0.0386615 -0.841786 0.0155126
67 -4.29397 0.792749 -0.433231 0.341888
20 -4.03419 -0.31173 0.330715 -0.601935
45 -3.1169 0.467296 0.0613254 0.288214
56 -1.78066 -0.915969 -0.738778 -0.00338093
31 -2.84449 -0.538415 -0.310138 -0.305811
55 -2.03852 0.14106 -0.332809 -0.191249
71 -1.34018 0.915043 0.125943 -0.245349
72 -0.992366 -0.1351 0.540419 0.084144
83 -0.228059 0.687092 -0.121489 0.243169
66 0.0660054 -0.411004 0.567285 0.0294203
98 0.845206 0.405149 -0.202089 0.820507
68 1.21038 -0.664906 0.238223 0.0326234
97 2.15009 0.14789 0.26794 0.493622
93 2.83425 0.929375 -0.365264 0.706745
105 3.20661 -0.123109 -0.719911 -0.0832521
107 4.19468 -0.454324 -0.516579 0.187494
96 3.96416 0.65375 -0.104703 0.115999
136 5.01723 0.319113 -0.585651 0.549754
134 5.20015 -0.792655 -0.365254 0.347163
106 6.12712 0.0836114 0.0802678 -0.551806
135 7.14971 -0.322473 -0.183029 -0.617938
126 8.31168 -0.578081 0.824849 -0.313106
137 8.02544 0.473433 0.00392992 -0.163968
127 7.03492 0.770825 -0.497232 0.345852
12 -8.7062 1.08841 0.515689 -0.497483
1 -7.57804 1.73533 0.0940835 -0.390713
11 -7.88764 2.78684 -0.120774 0.47129
3 -6.69101 2.52302 0.357977 -0.483004
32 -5.44812 1.06363 0.254946 -0.0296668
10 -6.52767 1.43464 -0.11714 0.194642
4 -5.64801 2.20326 -0.0612934 0.203042
13 -4.59454 1.82754 -0.352451 0.226031
46 -3.46593 1.56883 0.064802 1.15156
33 -3.81102 2.61929 0.317237 0.381961
34 -2.70054 2.29445 0.0823568 -0.0898281
36 -2.38316 1.26459 0.00108859 -0.677584
95 -1.58507 2.02336 -0.398134 -0.142649
82 0.601289 1.47505 0.104589 -0.265756
70 -0.465338 1.75427 0.237428 0.305146
69 0.332376 2.54399 -0.448344 -0.135646
25 -0.7657 2.84783 0.691141 -0.174376
109 1.71764 1.14721 0.00776334 0.032522
112 1.33257 2.25215 0.334411 0.46453
110 2.49685 1.87907 -0.838554 -0.543044
131 3.61531 1.67633 -0.025616 0.156844
120 4.43797 2.4802 0.324527 0.321978
128 4.72604 1.43707 0.419361 0.0789777
121 3.22437 2.7104 0.333885 -0.640429
118 5.77087 1.18791 0.0319907 0.242434
117 5.53646 2.21443 -0.246433 -0.458522
129 6.64289 1.87803 0.0279469 0.0552886
119 7.8898 1.56628 -0.123781 -0.0152807
44 -7.07799 3.57297 0.767344 0.396858
21 -5.98002 3.28377 0.246249 0.0696117
24 -6.23384 4.3897 -0.987924 -0.434555
14 -5.07349 4.16215 -0.0712123 0.141859
22 -4.86568 2.98653 0.193566 0.225345
23 -4.00179 3.71755 -0.270658 0.430453
35 -2.92611 3.3512 0.545788 -0.179564
47 -1.83472 3.02114 0.14541 -0.706047
85 -1.17573 3.90987 0.374372 -0.418789
59 0.025049 3.57186 0.236014 -0.129514
62 0.835842 4.45091 -0.0767122 0.0862738
58 -0.27065 4.65312 -0.0471673 0.363177
111 2.11171 3.00588 -0.504579 0.527707
99 1.07603 3.31857 0.985089 0.0570964
73 1.86759 4.12697 0.66396 0.205483
122 2.86241 3.86948 -0.152789 -0.432952
132 3.99944 3.61253 0.0131187 0.477613
123 5.12755 3.26086 -0.129774 0.282634
61 -1.46871 4.94678 0.341527 0.433534
48 -0.557624 5.68197 -0.0536252 0.0597796
60 0.512962 5.50327 -0.23282 0.157274
75 0.169677 6.55546 -0.50299 -0.334359
86 1.35721 6.55084 -0.389414 -0.519552
74 1.61119 5.18045 -0.344598 -0.246166
88 2.64116 4.93977 0.554956 -0.00602203
49 -1.32833 7.76717 -0.0462705 0.00835306
100 -0.995927 6.74611 0.279139 -0.335967
87 -0.252514 7.58942 -0.0918835 0.154747
84 0.0892856 8.66592 -0.232733 0.545841
101 0.833705 7.57076 0.284589 -0.199898
